LAMMPS (10 Dec 2025 - Development - patch_10Dec2025-380-g50e46bea6d)
OMP_NUM_THREADS environment is not set. Defaulting to 1 thread.
  using 1 OpenMP thread(s) per MPI task
Reading data file ...
  orthogonal box = (-0.5 -0.5 -0.5) to (0.5 0.5 0.5)
  1 by 1 by 1 MPI processor grid
  reading atoms ...
  45 atoms
  scanning bonds ...
  3 = max bonds/atom
  scanning angles ...
  6 = max angles/atom
  scanning dihedrals ...
  16 = max dihedrals/atom
  orthogonal box = (-0.5 -0.5 -0.5) to (0.5 0.5 0.5)
  1 by 1 by 1 MPI processor grid
  reading bonds ...
  46 bonds
  reading angles ...
  83 angles
  reading dihedrals ...
  157 dihedrals
Finding 1-2 1-3 1-4 neighbors ...
  special bond factors lj:    0        0        0       
  special bond factors coul:  0        0        0       
     4 = max # of 1-2 neighbors
     7 = max # of 1-3 neighbors
    16 = max # of 1-4 neighbors
    18 = max # of special neighbors
  special bonds CPU = 0.000 seconds
  read_data CPU = 0.017 seconds
Changing box ...
WARNING: Resetting image flags for non-periodic dimensions (src/domain.cpp:2161)
Changing box ...
  orthogonal box = (-50 -0.5 -0.5) to (50 0.5 0.5)
  orthogonal box = (-50 -50 -0.5) to (50 50 0.5)
  orthogonal box = (-50 -50 -50) to (50 50 50)
WARNING: No fixes with time integration, atoms won't move
For more information see https://docs.lammps.org/err0028 (src/verlet.cpp:60)
Generated 0 of 15 mixed pair_coeff terms from geometric mixing rule
WARNING: Bonds are defined but no bond style is set (src/force.cpp:198)
WARNING: Likewise 1-2 special neighbor interactions != 1.0 (src/force.cpp:200)
WARNING: Angles are defined but no angle style is set (src/force.cpp:203)
WARNING: Likewise 1-3 special neighbor interactions != 1.0 (src/force.cpp:205)
Neighbor list info ...
  update: every = 1 steps, delay = 0 steps, check = yes
  max neighbors/atom: 2000, page size: 100000
  master list distance cutoff = 12
  ghost atom cutoff = 12
  binsize = 6, bins = 17 17 17
  1 neighbor lists, perpetual/occasional/extra = 1 0 0
  (1) pair zero, perpetual
      attributes: half, newton on
      pair build: half/bin/newton
      stencil: half/bin/3d
      bin: standard
Setting up Verlet run ...
  Unit style    : real
  Current step  : 0
  Time step     : 1
Per MPI rank memory allocation (min/avg/max) = 14.11 | 14.11 | 14.11 Mbytes
   Step         c_cPE     
         0   253.94479    
Loop time of 1.141e-06 on 1 procs for 0 steps with 45 atoms

350.6% CPU use with 1 MPI tasks x 1 OpenMP threads

MPI task timing breakdown:
Section |  min time  |  avg time  |  max time  |%varavg| %total
---------------------------------------------------------------
Pair    | 0          | 0          | 0          |   0.0 |  0.00
Bond    | 0          | 0          | 0          |   0.0 |  0.00
Neigh   | 0          | 0          | 0          |   0.0 |  0.00
Comm    | 0          | 0          | 0          |   0.0 |  0.00
Output  | 0          | 0          | 0          |   0.0 |  0.00
Modify  | 0          | 0          | 0          |   0.0 |  0.00
Other   |            | 1.141e-06  |            |       |100.00

Nlocal:             45 ave          45 max          45 min
Histogram: 1 0 0 0 0 0 0 0 0 0
Nghost:              0 ave           0 max           0 min
Histogram: 1 0 0 0 0 0 0 0 0 0
Neighs:            735 ave         735 max         735 min
Histogram: 1 0 0 0 0 0 0 0 0 0

Total # of neighbors = 735
Ave neighs/atom = 16.333333
Ave special neighs/atom = 11.333333
Neighbor list builds = 0
Dangerous builds = 0
Total wall time: 0:00:00
